14
	Energy:      31.7598856
C          0.04574        0.40058        0.32958
C         -2.36195        0.14403        1.11100
S         -3.13962        0.74576       -0.42531
H         -2.81457        2.04059       -0.25618
O          0.23483        1.54996        0.69786
O          0.79154       -0.21422       -0.62637
H          0.40549       -1.12280       -0.72162
C         -1.00999       -0.55329        0.90564
H         -3.06647       -0.56186        1.56358
H         -2.25954        0.99180        1.79601
N         -1.08340       -1.77227        0.03476
H         -0.62057       -0.87835        1.87763
H         -1.83936       -1.61429       -0.64579
H         -1.42927       -2.54679        0.60926
